<?xml version="1.0" encoding="UTF-8"?>

<!-- generated on 2022-09-27 12:03:50 by Eclipse SUMO GUI Version 1.13.0
<configuration xmlns:xsi="http://www.w3.org/2001/XMLSchema-instance" xsi:noNamespaceSchemaLocation="http://sumo.dlr.de/xsd/sumoConfiguration.xsd">

    <input>
        <net-file value="J:\Mi%20unidad\proyecto_doctorado\simulations_project\UniValle_project\test_VehicleElectric\pasto_network.net.xml"/>
        <route-files value="J:\Mi%20unidad\proyecto_doctorado\simulations_project\UniValle_project\test_VehicleElectric\route1_1.rou.xml"/>
    </input>

    <output>
        <emission-output value="J:\Mi%20unidad\proyecto_doctorado\simulations_project\UniValle_project\test_VehicleElectric\emissions.xml"/>
        <tripinfo-output value="J:\Mi%20unidad\proyecto_doctorado\simulations_project\UniValle_project\test_VehicleElectric\tripinfos.xml"/>
    </output>

</configuration>
-->

<emission-export xmlns:xsi="http://www.w3.org/2001/XMLSchema-instance" xsi:noNamespaceSchemaLocation="http://sumo.dlr.de/xsd/emission_file.xsd">
    <timestep time="0.00">
        <vehicle id="1" eclass="Energy/default" CO2="0.00" CO="0.00" HC="0.00" NOx="0.00" PMx="0.00" fuel="0.00" electricity="0.03" noise="55.94" route="route1_1" type="TAXI_3" waiting="0.00" lane="88520171#1_0" pos="0.00" speed="0.00" angle="331.45" x="4912.76" y="5799.25"/>
    </timestep>
    <timestep time="1.00">
        <vehicle id="1" eclass="Energy/default" CO2="0.00" CO="0.00" HC="0.00" NOx="0.00" PMx="0.00" fuel="0.00" electricity="0.39" noise="62.80" route="route1_1" type="TAXI_3" waiting="0.00" lane="88520171#1_0" pos="1.43" speed="1.43" angle="331.55" x="4912.08" y="5800.51"/>
    </timestep>
    <timestep time="2.00">
        <vehicle id="1" eclass="Energy/default" CO2="0.00" CO="0.00" HC="0.00" NOx="0.00" PMx="0.00" fuel="0.00" electricity="2.38" noise="68.97" route="route1_1" type="TAXI_3" waiting="0.00" lane="88520171#1_0" pos="5.47" speed="4.03" angle="331.79" x="4910.18" y="5804.07"/>
    </timestep>
    <timestep time="3.00">
        <vehicle id="1" eclass="Energy/default" CO2="0.00" CO="0.00" HC="0.00" NOx="0.00" PMx="0.00" fuel="0.00" electricity="3.79" noise="68.05" route="route1_1" type="TAXI_3" waiting="0.00" lane="88520171#1_0" pos="11.67" speed="6.21" angle="331.79" x="4907.24" y="5809.53"/>
    </timestep>
    <timestep time="4.00">
        <vehicle id="1" eclass="Energy/default" CO2="0.00" CO="0.00" HC="0.00" NOx="0.00" PMx="0.00" fuel="0.00" electricity="6.21" noise="70.25" route="route1_1" type="TAXI_3" waiting="0.00" lane="88520171#1_0" pos="20.31" speed="8.63" angle="331.79" x="4903.16" y="5817.14"/>
    </timestep>
    <timestep time="5.00">
        <vehicle id="1" eclass="Energy/default" CO2="0.00" CO="0.00" HC="0.00" NOx="0.00" PMx="0.00" fuel="0.00" electricity="7.09" noise="69.59" route="route1_1" type="TAXI_3" waiting="0.00" lane=":1067468986_1_0" pos="5.75" speed="10.67" angle="332.45" x="4898.18" y="5826.58"/>
    </timestep>
    <timestep time="6.00">
        <vehicle id="1" eclass="Energy/default" CO2="0.00" CO="0.00" HC="0.00" NOx="0.00" PMx="0.00" fuel="0.00" electricity="8.84" noise="70.54" route="route1_1" type="TAXI_3" waiting="0.00" lane="88520171#2_0" pos="8.85" speed="12.69" angle="332.93" x="4892.37" y="5837.86"/>
    </timestep>
    <timestep time="7.00">
        <vehicle id="1" eclass="Energy/default" CO2="0.00" CO="0.00" HC="0.00" NOx="0.00" PMx="0.00" fuel="0.00" electricity="11.69" noise="72.37" route="route1_1" type="TAXI_3" waiting="0.00" lane="88520171#2_0" pos="23.74" speed="14.89" angle="332.93" x="4885.60" y="5851.12"/>
    </timestep>
    <timestep time="8.00">
        <vehicle id="1" eclass="Energy/default" CO2="0.00" CO="0.00" HC="0.00" NOx="0.00" PMx="0.00" fuel="0.00" electricity="13.12" noise="72.65" route="route1_1" type="TAXI_3" waiting="0.00" lane="88520171#2_0" pos="40.65" speed="16.90" angle="332.93" x="4877.90" y="5866.17"/>
    </timestep>
    <timestep time="9.00">
        <vehicle id="1" eclass="Energy/default" CO2="0.00" CO="0.00" HC="0.00" NOx="0.00" PMx="0.00" fuel="0.00" electricity="19.29" noise="76.19" route="route1_1" type="TAXI_3" waiting="0.00" lane="88520171#2_0" pos="60.14" speed="19.49" angle="332.93" x="4869.03" y="5883.53"/>
    </timestep>
    <timestep time="10.00">
        <vehicle id="1" eclass="Energy/default" CO2="0.00" CO="0.00" HC="0.00" NOx="0.00" PMx="0.00" fuel="0.00" electricity="20.18" noise="75.66" route="route1_1" type="TAXI_3" waiting="0.00" lane="88520171#2_0" pos="81.81" speed="21.67" angle="332.93" x="4859.17" y="5902.82"/>
    </timestep>
    <timestep time="11.00">
        <vehicle id="1" eclass="Energy/default" CO2="0.00" CO="0.00" HC="0.00" NOx="0.00" PMx="0.00" fuel="0.00" electricity="21.61" noise="75.75" route="route1_1" type="TAXI_3" waiting="0.00" lane="88520171#3_0" pos="8.93" speed="23.61" angle="334.61" x="4848.86" y="5924.05"/>
    </timestep>
    <timestep time="12.00">
        <vehicle id="1" eclass="Energy/default" CO2="0.00" CO="0.00" HC="0.00" NOx="0.00" PMx="0.00" fuel="0.00" electricity="28.28" noise="78.30" route="route1_1" type="TAXI_3" waiting="0.00" lane="88520171#3_0" pos="34.85" speed="25.93" angle="334.61" x="4837.75" y="5947.48"/>
    </timestep>
    <timestep time="13.00">
        <vehicle id="1" eclass="Energy/default" CO2="0.00" CO="0.00" HC="0.00" NOx="0.00" PMx="0.00" fuel="0.00" electricity="34.29" noise="80.02" route="route1_1" type="TAXI_3" waiting="0.00" lane=":614468075_1_0" pos="3.50" speed="28.39" angle="333.84" x="4825.52" y="5973.10"/>
    </timestep>
    <timestep time="14.00">
        <vehicle id="1" eclass="Energy/default" CO2="0.00" CO="0.00" HC="0.00" NOx="0.00" PMx="0.00" fuel="0.00" electricity="41.18" noise="81.71" route="route1_1" type="TAXI_3" waiting="0.00" lane="88520171#4_0" pos="23.41" speed="30.97" angle="332.38" x="4811.29" y="6000.61"/>
    </timestep>
    <timestep time="15.00">
        <vehicle id="1" eclass="Energy/default" CO2="0.00" CO="0.00" HC="0.00" NOx="0.00" PMx="0.00" fuel="0.00" electricity="33.09" noise="78.07" route="route1_1" type="TAXI_3" waiting="0.00" lane="88520171#4_0" pos="55.73" speed="32.33" angle="332.38" x="4796.30" y="6029.25"/>
    </timestep>
    <timestep time="16.00">
        <vehicle id="1" eclass="Energy/default" CO2="0.00" CO="0.00" HC="0.00" NOx="0.00" PMx="0.00" fuel="0.00" electricity="38.03" noise="79.24" route="route1_1" type="TAXI_3" waiting="0.00" lane="88520171#5_0" pos="18.77" speed="33.83" angle="333.58" x="4781.07" y="6059.47"/>
    </timestep>
    <timestep time="17.00">
        <vehicle id="1" eclass="Energy/default" CO2="0.00" CO="0.00" HC="0.00" NOx="0.00" PMx="0.00" fuel="0.00" electricity="43.86" noise="80.53" route="route1_1" type="TAXI_3" waiting="0.00" lane="88520171#5_0" pos="54.27" speed="35.50" angle="333.58" x="4765.28" y="6091.26"/>
    </timestep>
    <timestep time="18.00">
        <vehicle id="1" eclass="Energy/default" CO2="0.00" CO="0.00" HC="0.00" NOx="0.00" PMx="0.00" fuel="0.00" electricity="58.21" noise="84.13" route="route1_1" type="TAXI_3" waiting="0.00" lane="88520171#6_0" pos="18.85" speed="37.86" angle="333.37" x="4748.35" y="6125.11"/>
    </timestep>
    <timestep time="19.00">
        <vehicle id="1" eclass="Energy/default" CO2="0.00" CO="0.00" HC="0.00" NOx="0.00" PMx="0.00" fuel="0.00" electricity="68.20" noise="85.86" route="route1_1" type="TAXI_3" waiting="0.00" lane="88520171#6_0" pos="59.22" speed="40.37" angle="335.16" x="4730.63" y="6161.39"/>
    </timestep>
    <timestep time="20.00">
        <vehicle id="1" eclass="Energy/default" CO2="0.00" CO="0.00" HC="0.00" NOx="0.00" PMx="0.00" fuel="0.00" electricity="71.15" noise="85.35" route="route1_1" type="TAXI_3" waiting="0.00" lane="88520171#7_0" pos="30.62" speed="42.49" angle="335.61" x="4712.64" y="6199.88"/>
    </timestep>
    <timestep time="21.00">
        <vehicle id="1" eclass="Energy/default" CO2="0.00" CO="0.00" HC="0.00" NOx="0.00" PMx="0.00" fuel="0.00" electricity="84.42" noise="87.61" route="route1_1" type="TAXI_3" waiting="0.00" lane="88520171#8_0" pos="34.44" speed="44.90" angle="334.19" x="4693.30" y="6240.40"/>
    </timestep>
    <timestep time="22.00">
        <vehicle id="1" eclass="Energy/default" CO2="0.00" CO="0.00" HC="0.00" NOx="0.00" PMx="0.00" fuel="0.00" electricity="96.87" noise="89.22" route="route1_1" type="TAXI_3" waiting="0.00" lane="88520171#9_0" pos="31.50" speed="47.43" angle="334.23" x="4672.68" y="6283.12"/>
    </timestep>
    <timestep time="23.00">
        <vehicle id="1" eclass="Energy/default" CO2="0.00" CO="0.00" HC="0.00" NOx="0.00" PMx="0.00" fuel="0.00" electricity="102.91" noise="89.03" route="route1_1" type="TAXI_3" waiting="0.00" lane="88520171#10_0" pos="33.61" speed="49.64" angle="332.31" x="4649.93" y="6327.24"/>
    </timestep>
    <timestep time="24.00">
        <vehicle id="1" eclass="Energy/default" CO2="0.00" CO="0.00" HC="0.00" NOx="0.00" PMx="0.00" fuel="0.00" electricity="106.22" noise="88.39" route="route1_1" type="TAXI_3" waiting="0.00" lane="88520171#12_0" pos="21.68" speed="51.47" angle="335.40" x="4627.02" y="6373.33"/>
    </timestep>
    <timestep time="25.00">
        <vehicle id="1" eclass="Energy/default" CO2="0.00" CO="0.00" HC="0.00" NOx="0.00" PMx="0.00" fuel="0.00" electricity="121.84" noise="90.48" route="route1_1" type="TAXI_3" waiting="0.00" lane=":614470005_1_0" pos="0.67" speed="53.59" angle="335.22" x="4604.69" y="6422.05"/>
    </timestep>
    <timestep time="26.00">
        <vehicle id="1" eclass="Energy/default" CO2="0.00" CO="0.00" HC="0.00" NOx="0.00" PMx="0.00" fuel="0.00" electricity="117.87" noise="88.37" route="route1_1" type="TAXI_3" waiting="0.00" lane="88520171#13_0" pos="44.75" speed="54.99" angle="332.74" x="4579.71" y="6471.04"/>
    </timestep>
    <timestep time="27.00">
        <vehicle id="1" eclass="Energy/default" CO2="0.00" CO="0.00" HC="0.00" NOx="0.00" PMx="0.00" fuel="0.00" electricity="53.61" noise="80.88" route="route1_1" type="TAXI_3" waiting="0.00" lane="88520171#15_0" pos="1.39" speed="53.10" angle="335.64" x="4557.16" y="6519.08"/>
    </timestep>
    <timestep time="28.00">
        <vehicle id="1" eclass="Energy/default" CO2="0.00" CO="0.00" HC="0.00" NOx="0.00" PMx="0.00" fuel="0.00" electricity="-3.69" noise="79.00" route="route1_1" type="TAXI_3" waiting="0.00" lane="88520171#16_0" pos="31.62" speed="48.60" angle="333.10" x="4535.42" y="6562.56"/>
    </timestep>
    <timestep time="29.00">
        <vehicle id="1" eclass="Energy/default" CO2="0.00" CO="0.00" HC="0.00" NOx="0.00" PMx="0.00" fuel="0.00" electricity="-10.94" noise="77.58" route="route1_1" type="TAXI_3" waiting="0.00" lane="88520171#18_0" pos="23.68" speed="44.10" angle="333.79" x="4515.83" y="6602.08"/>
    </timestep>
    <timestep time="30.00">
        <vehicle id="1" eclass="Energy/default" CO2="0.00" CO="0.00" HC="0.00" NOx="0.00" PMx="0.00" fuel="0.00" electricity="-16.04" noise="76.02" route="route1_1" type="TAXI_3" waiting="0.00" lane="88520171#18_0" pos="63.28" speed="39.60" angle="333.79" x="4498.34" y="6637.62"/>
    </timestep>
    <timestep time="31.00">
        <vehicle id="1" eclass="Energy/default" CO2="0.00" CO="0.00" HC="0.00" NOx="0.00" PMx="0.00" fuel="0.00" electricity="-19.20" noise="74.28" route="route1_1" type="TAXI_3" waiting="0.00" lane="88520171#18_0" pos="98.39" speed="35.10" angle="333.79" x="4482.84" y="6669.11"/>
    </timestep>
    <timestep time="32.00">
        <vehicle id="1" eclass="Energy/default" CO2="0.00" CO="0.00" HC="0.00" NOx="0.00" PMx="0.00" fuel="0.00" electricity="-20.66" noise="72.32" route="route1_1" type="TAXI_3" waiting="0.00" lane="88520171#20_0" pos="3.26" speed="30.60" angle="334.70" x="4470.18" y="6696.97"/>
    </timestep>
    <timestep time="33.00">
        <vehicle id="1" eclass="Energy/default" CO2="0.00" CO="0.00" HC="0.00" NOx="0.00" PMx="0.00" fuel="0.00" electricity="-20.62" noise="70.07" route="route1_1" type="TAXI_3" waiting="0.00" lane="88520171#20_0" pos="29.36" speed="26.10" angle="333.99" x="4458.73" y="6720.43"/>
    </timestep>
    <timestep time="34.00">
        <vehicle id="1" eclass="Energy/default" CO2="0.00" CO="0.00" HC="0.00" NOx="0.00" PMx="0.00" fuel="0.00" electricity="-18.55" noise="67.51" route="route1_1" type="TAXI_3" waiting="0.00" lane="88520171#20_0" pos="51.11" speed="21.75" angle="333.99" x="4449.20" y="6739.97"/>
    </timestep>
    <timestep time="35.00">
        <vehicle id="1" eclass="Energy/default" CO2="0.00" CO="0.00" HC="0.00" NOx="0.00" PMx="0.00" fuel="0.00" electricity="-17.04" noise="64.31" route="route1_1" type="TAXI_3" waiting="0.00" lane="88520171#20_0" pos="68.36" speed="17.25" angle="333.99" x="4441.63" y="6755.47"/>
    </timestep>
    <timestep time="36.00">
        <vehicle id="1" eclass="Energy/default" CO2="0.00" CO="0.00" HC="0.00" NOx="0.00" PMx="0.00" fuel="0.00" electricity="-13.86" noise="60.23" route="route1_1" type="TAXI_3" waiting="0.00" lane="88520171#20_0" pos="81.10" speed="12.75" angle="333.99" x="4436.05" y="6766.92"/>
    </timestep>
    <timestep time="37.00">
        <vehicle id="1" eclass="Energy/default" CO2="0.00" CO="0.00" HC="0.00" NOx="0.00" PMx="0.00" fuel="0.00" electricity="-10.07" noise="54.59" route="route1_1" type="TAXI_3" waiting="0.00" lane="88520171#20_0" pos="89.35" speed="8.25" angle="333.55" x="4432.38" y="6774.31"/>
    </timestep>
    <timestep time="38.00">
        <vehicle id="1" eclass="Energy/default" CO2="0.00" CO="0.00" HC="0.00" NOx="0.00" PMx="0.00" fuel="0.00" electricity="-2.14" noise="55.12" route="route1_1" type="TAXI_3" waiting="0.00" lane=":612616635_0_0" pos="2.54" speed="6.79" angle="332.64" x="4429.29" y="6780.36"/>
    </timestep>
    <timestep time="39.00">
        <vehicle id="1" eclass="Energy/default" CO2="0.00" CO="0.00" HC="0.00" NOx="0.00" PMx="0.00" fuel="0.00" electricity="5.43" noise="68.43" route="route1_1" type="TAXI_3" waiting="0.00" lane=":8496901648_2_0" pos="4.95" speed="8.77" angle="6.86" x="4429.34" y="6789.12"/>
    </timestep>
    <timestep time="40.00">
        <vehicle id="1" eclass="Energy/default" CO2="0.00" CO="0.00" HC="0.00" NOx="0.00" PMx="0.00" fuel="0.00" electricity="5.16" noise="66.96" route="route1_1" type="TAXI_3" waiting="0.00" lane="142724401#3_1" pos="0.90" speed="10.21" angle="338.31" x="4424.10" y="6798.63"/>
    </timestep>
    <timestep time="41.00">
        <vehicle id="1" eclass="Energy/default" CO2="0.00" CO="0.00" HC="0.00" NOx="0.00" PMx="0.00" fuel="0.00" electricity="7.49" noise="69.27" route="route1_1" type="TAXI_3" waiting="0.00" lane=":612616638_2_0" pos="1.76" speed="12.00" angle="319.00" x="4420.24" y="6809.89"/>
    </timestep>
    <timestep time="42.00">
        <vehicle id="1" eclass="Energy/default" CO2="0.00" CO="0.00" HC="0.00" NOx="0.00" PMx="0.00" fuel="0.00" electricity="8.69" noise="69.87" route="route1_1" type="TAXI_3" waiting="0.00" lane="142724401#4_1" pos="2.05" speed="13.72" angle="286.29" x="4406.35" y="6813.37"/>
    </timestep>
    <timestep time="43.00">
        <vehicle id="1" eclass="Energy/default" CO2="0.00" CO="0.00" HC="0.00" NOx="0.00" PMx="0.00" fuel="0.00" electricity="14.57" noise="74.32" route="route1_1" type="TAXI_3" waiting="0.00" lane="142724401#4_1" pos="18.29" speed="16.24" angle="252.75" x="4392.09" y="6812.00"/>
    </timestep>
    <timestep time="44.00">
        <vehicle id="1" eclass="Energy/default" CO2="0.00" CO="0.00" HC="0.00" NOx="0.00" PMx="0.00" fuel="0.00" electricity="14.76" noise="73.38" route="route1_1" type="TAXI_3" waiting="0.00" lane=":612616625_2_0" pos="8.86" speed="18.26" angle="216.65" x="4376.23" y="6801.83"/>
    </timestep>
    <timestep time="45.00">
        <vehicle id="1" eclass="Energy/default" CO2="0.00" CO="0.00" HC="0.00" NOx="0.00" PMx="0.00" fuel="0.00" electricity="18.91" noise="75.36" route="route1_1" type="TAXI_3" waiting="0.00" lane=":5322391899_2_0" pos="8.99" speed="20.51" angle="170.01" x="4374.71" y="6781.27"/>
    </timestep>
    <timestep time="46.00">
        <vehicle id="1" eclass="Energy/default" CO2="0.00" CO="0.00" HC="0.00" NOx="0.00" PMx="0.00" fuel="0.00" electricity="21.78" noise="76.19" route="route1_1" type="TAXI_3" waiting="0.00" lane="142724401#6_0" pos="13.98" speed="22.69" angle="114.21" x="4391.49" y="6764.25"/>
    </timestep>
    <timestep time="47.00">
        <vehicle id="1" eclass="Energy/default" CO2="0.00" CO="0.00" HC="0.00" NOx="0.00" PMx="0.00" fuel="0.00" electricity="25.04" noise="77.10" route="route1_1" type="TAXI_3" waiting="0.00" lane=":5322391901_0_0" pos="6.57" speed="24.83" angle="107.55" x="4416.12" y="6762.40"/>
    </timestep>
    <timestep time="48.00">
        <vehicle id="1" eclass="Energy/default" CO2="0.00" CO="0.00" HC="0.00" NOx="0.00" PMx="0.00" fuel="0.00" electricity="26.26" noise="77.02" route="route1_1" type="TAXI_3" waiting="0.00" lane="48376975#0_0" pos="26.19" speed="26.70" angle="143.33" x="4434.74" y="6743.47"/>
    </timestep>
    <timestep time="49.00">
        <vehicle id="1" eclass="Energy/default" CO2="0.00" CO="0.00" HC="0.00" NOx="0.00" PMx="0.00" fuel="0.00" electricity="24.13" noise="75.86" route="route1_1" type="TAXI_3" waiting="0.00" lane="48376975#0_0" pos="54.20" speed="28.00" angle="153.98" x="4447.10" y="6718.35"/>
    </timestep>
    <timestep time="50.00">
        <vehicle id="1" eclass="Energy/default" CO2="0.00" CO="0.00" HC="0.00" NOx="0.00" PMx="0.00" fuel="0.00" electricity="30.23" noise="77.76" route="route1_1" type="TAXI_3" waiting="0.00" lane="48376975#0_0" pos="83.86" speed="29.66" angle="153.98" x="4460.11" y="6691.70"/>
    </timestep>
    <timestep time="51.00">
        <vehicle id="1" eclass="Energy/default" CO2="0.00" CO="0.00" HC="0.00" NOx="0.00" PMx="0.00" fuel="0.00" electricity="37.24" noise="79.75" route="route1_1" type="TAXI_3" waiting="0.00" lane="48376975#0_0" pos="115.49" speed="31.63" angle="153.98" x="4473.99" y="6663.28"/>
    </timestep>
    <timestep time="52.00">
        <vehicle id="1" eclass="Energy/default" CO2="0.00" CO="0.00" HC="0.00" NOx="0.00" PMx="0.00" fuel="0.00" electricity="41.24" noise="80.43" route="route1_1" type="TAXI_3" waiting="0.00" lane="48376975#0_0" pos="149.02" speed="33.53" angle="153.98" x="4488.70" y="6633.14"/>
    </timestep>
    <timestep time="53.00">
        <vehicle id="1" eclass="Energy/default" CO2="0.00" CO="0.00" HC="0.00" NOx="0.00" PMx="0.00" fuel="0.00" electricity="53.62" noise="83.66" route="route1_1" type="TAXI_3" waiting="0.00" lane="48376975#0_0" pos="185.02" speed="36.00" angle="153.98" x="4504.50" y="6600.79"/>
    </timestep>
    <timestep time="54.00">
        <vehicle id="1" eclass="Energy/default" CO2="0.00" CO="0.00" HC="0.00" NOx="0.00" PMx="0.00" fuel="0.00" electricity="48.19" noise="81.06" route="route1_1" type="TAXI_3" waiting="0.00" lane="48376975#0_0" pos="222.57" speed="37.55" angle="153.98" x="4520.97" y="6567.05"/>
    </timestep>
    <timestep time="55.00">
        <vehicle id="1" eclass="Energy/default" CO2="0.00" CO="0.00" HC="0.00" NOx="0.00" PMx="0.00" fuel="0.00" electricity="62.85" noise="84.49" route="route1_1" type="TAXI_3" waiting="0.00" lane="48376975#0_0" pos="262.34" speed="39.77" angle="153.98" x="4538.42" y="6531.31"/>
    </timestep>
    <timestep time="56.00">
        <vehicle id="1" eclass="Energy/default" CO2="0.00" CO="0.00" HC="0.00" NOx="0.00" PMx="0.00" fuel="0.00" electricity="61.11" noise="83.06" route="route1_1" type="TAXI_3" waiting="0.00" lane="48376975#1_0" pos="12.66" speed="41.39" angle="153.10" x="4556.85" y="6494.25"/>
    </timestep>
    <timestep time="57.00">
        <vehicle id="1" eclass="Energy/default" CO2="0.00" CO="0.00" HC="0.00" NOx="0.00" PMx="0.00" fuel="0.00" electricity="66.95" noise="83.83" route="route1_1" type="TAXI_3" waiting="0.00" lane="48376975#1_0" pos="55.68" speed="43.02" angle="154.78" x="4575.50" y="6455.48"/>
    </timestep>
    <timestep time="58.00">
        <vehicle id="1" eclass="Energy/default" CO2="0.00" CO="0.00" HC="0.00" NOx="0.00" PMx="0.00" fuel="0.00" electricity="73.21" noise="84.60" route="route1_1" type="TAXI_3" waiting="0.00" lane="48376975#2_0" pos="10.46" speed="44.66" angle="154.49" x="4594.62" y="6415.13"/>
    </timestep>
    <timestep time="59.00">
        <vehicle id="1" eclass="Energy/default" CO2="0.00" CO="0.00" HC="0.00" NOx="0.00" PMx="0.00" fuel="0.00" electricity="84.79" noise="86.48" route="route1_1" type="TAXI_3" waiting="0.00" lane="48376975#2_0" pos="57.04" speed="46.58" angle="154.49" x="4614.68" y="6373.08"/>
    </timestep>
    <timestep time="60.00">
        <vehicle id="1" eclass="Energy/default" CO2="0.00" CO="0.00" HC="0.00" NOx="0.00" PMx="0.00" fuel="0.00" electricity="89.53" noise="86.54" route="route1_1" type="TAXI_3" waiting="0.00" lane=":612615633_1_0" pos="2.25" speed="48.30" angle="154.15" x="4635.73" y="6329.61"/>
    </timestep>
    <timestep time="61.00">
        <vehicle id="1" eclass="Energy/default" CO2="0.00" CO="0.00" HC="0.00" NOx="0.00" PMx="0.00" fuel="0.00" electricity="102.80" noise="88.46" route="route1_1" type="TAXI_3" waiting="0.00" lane=":759174238_1_0" pos="2.21" speed="50.29" angle="154.39" x="4657.35" y="6284.19"/>
    </timestep>
    <timestep time="62.00">
        <vehicle id="1" eclass="Energy/default" CO2="0.00" CO="0.00" HC="0.00" NOx="0.00" PMx="0.00" fuel="0.00" electricity="103.71" noise="87.50" route="route1_1" type="TAXI_3" waiting="0.00" lane="48376975#5_0" pos="42.71" speed="51.84" angle="153.70" x="4680.26" y="6237.69"/>
    </timestep>
    <timestep time="63.00">
        <vehicle id="1" eclass="Energy/default" CO2="0.00" CO="0.00" HC="0.00" NOx="0.00" PMx="0.00" fuel="0.00" electricity="133.29" noise="92.61" route="route1_1" type="TAXI_3" waiting="0.00" lane="48376975#7_0" pos="9.84" speed="54.40" angle="154.03" x="4704.86" y="6189.17"/>
    </timestep>
    <timestep time="64.00">
        <vehicle id="1" eclass="Energy/default" CO2="0.00" CO="0.00" HC="0.00" NOx="0.00" PMx="0.00" fuel="0.00" electricity="88.87" noise="83.56" route="route1_1" type="TAXI_3" waiting="0.00" lane="48376975#8_0" pos="18.16" speed="54.28" angle="155.48" x="4728.07" y="6140.11"/>
    </timestep>
    <timestep time="65.00">
        <vehicle id="1" eclass="Energy/default" CO2="0.00" CO="0.00" HC="0.00" NOx="0.00" PMx="0.00" fuel="0.00" electricity="90.51" noise="83.78" route="route1_1" type="TAXI_3" waiting="0.00" lane="48376975#9_0" pos="1.59" speed="54.27" angle="154.08" x="4750.81" y="6090.83"/>
    </timestep>
    <timestep time="66.00">
        <vehicle id="1" eclass="Energy/default" CO2="0.00" CO="0.00" HC="0.00" NOx="0.00" PMx="0.00" fuel="0.00" electricity="92.54" noise="84.04" route="route1_1" type="TAXI_3" waiting="0.00" lane=":612615627_1_0" pos="3.44" speed="54.35" angle="153.59" x="4775.04" y="6042.18"/>
    </timestep>
    <timestep time="67.00">
        <vehicle id="1" eclass="Energy/default" CO2="0.00" CO="0.00" HC="0.00" NOx="0.00" PMx="0.00" fuel="0.00" electricity="104.49" noise="85.71" route="route1_1" type="TAXI_3" waiting="0.00" lane="48376975#10_0" pos="47.04" speed="54.96" angle="153.71" x="4799.39" y="5992.92"/>
    </timestep>
    <timestep time="68.00">
        <vehicle id="1" eclass="Energy/default" CO2="0.00" CO="0.00" HC="0.00" NOx="0.00" PMx="0.00" fuel="0.00" electricity="96.18" noise="84.33" route="route1_1" type="TAXI_3" waiting="0.00" lane="48376975#11_0" pos="27.67" speed="55.05" angle="154.18" x="4823.52" y="5943.45"/>
    </timestep>
    <timestep time="69.00">
        <vehicle id="1" eclass="Energy/default" CO2="0.00" CO="0.00" HC="0.00" NOx="0.00" PMx="0.00" fuel="0.00" electricity="82.23" noise="82.76" route="route1_1" type="TAXI_3" waiting="0.00" lane="48376975#12_0" pos="12.99" speed="54.48" angle="154.81" x="4847.03" y="5894.31"/>
    </timestep>
    <timestep time="70.00">
        <vehicle id="1" eclass="Energy/default" CO2="0.00" CO="0.00" HC="0.00" NOx="0.00" PMx="0.00" fuel="0.00" electricity="112.22" noise="86.90" route="route1_1" type="TAXI_3" waiting="0.00" lane="48376975#13_0" pos="1.03" speed="55.40" angle="155.63" x="4870.42" y="5844.10"/>
    </timestep>
    <timestep time="71.00">
        <vehicle id="1" eclass="Energy/default" CO2="0.00" CO="0.00" HC="0.00" NOx="0.00" PMx="0.00" fuel="0.00" electricity="76.64" noise="82.25" route="route1_1" type="TAXI_3" waiting="0.00" lane="48376975#13_0" pos="55.54" speed="54.50" angle="156.10" x="4892.50" y="5794.26"/>
    </timestep>
    <timestep time="72.00"/>
</emission-export>
