<?xml version="1.0" encoding="UTF-8"?>

<!-- generated on 2022-09-27 12:03:50 by Eclipse SUMO GUI Version 1.13.0
<configuration xmlns:xsi="http://www.w3.org/2001/XMLSchema-instance" xsi:noNamespaceSchemaLocation="http://sumo.dlr.de/xsd/sumoConfiguration.xsd">

    <input>
        <net-file value="J:\Mi%20unidad\proyecto_doctorado\simulations_project\UniValle_project\test_VehicleElectric\pasto_network.net.xml"/>
        <route-files value="J:\Mi%20unidad\proyecto_doctorado\simulations_project\UniValle_project\test_VehicleElectric\route1_1.rou.xml"/>
    </input>

    <output>
        <emission-output value="J:\Mi%20unidad\proyecto_doctorado\simulations_project\UniValle_project\test_VehicleElectric\emissions.xml"/>
        <tripinfo-output value="J:\Mi%20unidad\proyecto_doctorado\simulations_project\UniValle_project\test_VehicleElectric\tripinfos.xml"/>
    </output>

</configuration>
-->

<tripinfos xmlns:xsi="http://www.w3.org/2001/XMLSchema-instance" xsi:noNamespaceSchemaLocation="http://sumo.dlr.de/xsd/tripinfo_file.xsd">
    <tripinfo id="1" depart="0.00" departLane="88520171#1_0" departPos="0.00" departSpeed="0.00" departDelay="0.00" arrival="72.00" arrivalLane="91859797_0" arrivalPos="13.30" arrivalSpeed="54.36" duration="72.00" routeLength="2348.99" waitingTime="0.00" waitingCount="0" stopTime="0.00" timeLoss="29.24" rerouteNo="0" devices="tripinfo_1 emissions_1" vType="TAXI_3" speedFactor="1.00" vaporized="">
        <emissions CO_abs="0" CO2_abs="0" HC_abs="0" PMx_abs="0" NOx_abs="0" fuel_abs="0" electricity_abs="3055.327973"/>
    </tripinfo>
</tripinfos>
