<?xml version="1.0" encoding="UTF-8"?>

<!-- generated on 2022-09-20 16:05:41 by Eclipse SUMO GUI Version 1.13.0
<configuration xmlns:xsi="http://www.w3.org/2001/XMLSchema-instance" xsi:noNamespaceSchemaLocation="http://sumo.dlr.de/xsd/sumoConfiguration.xsd">

    <input>
        <net-file value="pasto_network.net.xml"/>
        <route-files value="route1_1.rou.xml"/>
    </input>

    <output>
        <emission-output value="emissions.xml"/>
        <tripinfo-output value="tripinfos.xml"/>
    </output>

    <traci_server>
        <remote-port value="56632"/>
    </traci_server>

    <gui_only>
        <quit-on-end value="true"/>
        <start value="true"/>
    </gui_only>

</configuration>
-->

<emission-export xmlns:xsi="http://www.w3.org/2001/XMLSchema-instance" xsi:noNamespaceSchemaLocation="http://sumo.dlr.de/xsd/emission_file.xsd">
</emission-export>
